<?xml version="1.0" encoding="UTF-8"?>

<!-- generated on 2025-12-02T11:39:18.949972+00:00 by Eclipse SUMO GUI 1.25.0
<sumoConfiguration xmlns:xsi="http://www.w3.org/2001/XMLSchema-instance" xsi:noNamespaceSchemaLocation="http://sumo.dlr.de/xsd/sumoConfiguration.xsd">

    <input>
        <net-file value="mon_reseau_simple.net.xml"/>
        <route-files value="mes_routes.rou.xml"/>
        <additional-files value="mon_add.xml"/>
    </input>

    <time>
        <begin value="0"/>
        <end value="3600"/>
        <step-length value="0.1"/>
    </time>

    <report>
        <verbose value="true"/>
        <no-step-log value="true"/>
    </report>

    <traci_server>
        <remote-port value="53622"/>
    </traci_server>

    <gui_only>
        <quit-on-end value="true"/>
        <start value="true"/>
    </gui_only>

</sumoConfiguration>
-->

<meandata xmlns:xsi="http://www.w3.org/2001/XMLSchema-instance" xsi:noNamespaceSchemaLocation="http://sumo.dlr.de/xsd/meandata_file.xsd">
    <interval begin="0.00" end="10.00" id="edgeStats">
        <edge id="NtoC" sampledSeconds="16.10" CO_abs="198.59" CO2_abs="56967.80" HC_abs="1.31" PMx_abs="2.94" NOx_abs="17.10" fuel_abs="18467.91" electricity_abs="0.00"
            CO_normed="238.30" CO2_normed="68361.36" HC_normed="1.58" PMx_normed="3.52" NOx_normed="20.53" fuel_normed="22161.49" electricity_normed="0.00"
            traveltime="45.06" CO_perVeh="555.84" CO2_perVeh="159452.25" HC_perVeh="3.68" PMx_perVeh="8.22" NOx_perVeh="47.88" fuel_perVeh="51691.47" electricity_perVeh="0.00"/>
        <edge id="CtoN" sampledSeconds="0.00" CO_abs="0.00" CO2_abs="0.00" HC_abs="0.00" PMx_abs="0.00" NOx_abs="0.00" fuel_abs="0.00" electricity_abs="0.00"
            CO_normed="0.00" CO2_normed="0.00" HC_normed="0.00" PMx_normed="0.00" NOx_normed="0.00" fuel_normed="0.00" electricity_normed="0.00"/>
        <edge id="StoC" sampledSeconds="9.90" CO_abs="209.88" CO2_abs="42918.23" HC_abs="1.39" PMx_abs="2.54" NOx_abs="13.16" fuel_abs="13913.31" electricity_abs="0.00"
            CO_normed="251.85" CO2_normed="51501.88" HC_normed="1.67" PMx_normed="3.04" NOx_normed="15.80" fuel_normed="16695.97" electricity_normed="0.00"
            traveltime="32.86" CO_perVeh="696.60" CO2_perVeh="142448.76" HC_perVeh="4.61" PMx_perVeh="8.41" NOx_perVeh="43.69" fuel_perVeh="46179.30" electricity_perVeh="0.00"/>
        <edge id="CtoS" sampledSeconds="0.00" CO_abs="0.00" CO2_abs="0.00" HC_abs="0.00" PMx_abs="0.00" NOx_abs="0.00" fuel_abs="0.00" electricity_abs="0.00"
            CO_normed="0.00" CO2_normed="0.00" HC_normed="0.00" PMx_normed="0.00" NOx_normed="0.00" fuel_normed="0.00" electricity_normed="0.00"/>
        <edge id="EtoC" sampledSeconds="15.90" CO_abs="226.18" CO2_abs="58929.29" HC_abs="1.50" PMx_abs="2.98" NOx_abs="17.85" fuel_abs="19103.78" electricity_abs="0.00"
            CO_normed="271.41" CO2_normed="70715.14" HC_normed="1.80" PMx_normed="3.58" NOx_normed="21.42" fuel_normed="22924.54" electricity_normed="0.00"
            traveltime="44.88" CO_perVeh="638.49" CO2_perVeh="166353.76" HC_perVeh="4.22" PMx_perVeh="8.42" NOx_perVeh="50.39" fuel_perVeh="53928.81" electricity_perVeh="0.00"/>
        <edge id="CtoE" sampledSeconds="0.00" CO_abs="0.00" CO2_abs="0.00" HC_abs="0.00" PMx_abs="0.00" NOx_abs="0.00" fuel_abs="0.00" electricity_abs="0.00"
            CO_normed="0.00" CO2_normed="0.00" HC_normed="0.00" PMx_normed="0.00" NOx_normed="0.00" fuel_normed="0.00" electricity_normed="0.00"/>
        <edge id="WtoC" sampledSeconds="9.90" CO_abs="211.59" CO2_abs="43360.72" HC_abs="1.40" PMx_abs="2.60" NOx_abs="13.33" fuel_abs="14056.76" electricity_abs="0.00"
            CO_normed="253.90" CO2_normed="52032.87" HC_normed="1.68" PMx_normed="3.12" NOx_normed="15.99" fuel_normed="16868.12" electricity_normed="0.00"
            traveltime="33.09" CO_perVeh="707.15" CO2_perVeh="144917.55" HC_perVeh="4.68" PMx_perVeh="8.68" NOx_perVeh="44.54" fuel_perVeh="46979.65" electricity_perVeh="0.00"/>
        <edge id="CtoW" sampledSeconds="0.00" CO_abs="0.00" CO2_abs="0.00" HC_abs="0.00" PMx_abs="0.00" NOx_abs="0.00" fuel_abs="0.00" electricity_abs="0.00"
            CO_normed="0.00" CO2_normed="0.00" HC_normed="0.00" PMx_normed="0.00" NOx_normed="0.00" fuel_normed="0.00" electricity_normed="0.00"/>
    </interval>
    <interval begin="10.00" end="20.00" id="edgeStats">
        <edge id="NtoC" sampledSeconds="27.90" CO_abs="354.58" CO2_abs="81946.96" HC_abs="2.36" PMx_abs="6.87" NOx_abs="26.45" fuel_abs="26565.97" electricity_abs="0.00"
            CO_normed="425.49" CO2_normed="98336.36" HC_normed="2.83" PMx_normed="8.24" NOx_normed="31.73" fuel_normed="31879.16" electricity_normed="0.00"
            traveltime="29.15" CO_perVeh="370.51" CO2_perVeh="85629.10" HC_perVeh="2.47" PMx_perVeh="7.18" NOx_perVeh="27.63" fuel_perVeh="27759.66" electricity_perVeh="0.00"/>
        <edge id="CtoN" sampledSeconds="0.00" CO_abs="0.00" CO2_abs="0.00" HC_abs="0.00" PMx_abs="0.00" NOx_abs="0.00" fuel_abs="0.00" electricity_abs="0.00"
            CO_normed="0.00" CO2_normed="0.00" HC_normed="0.00" PMx_normed="0.00" NOx_normed="0.00" fuel_normed="0.00" electricity_normed="0.00"/>
        <edge id="StoC" sampledSeconds="27.40" CO_abs="583.68" CO2_abs="106160.82" HC_abs="3.88" PMx_abs="7.64" NOx_abs="33.68" fuel_abs="34415.51" electricity_abs="0.00"
            CO_normed="700.41" CO2_normed="127392.99" HC_normed="4.65" PMx_normed="9.17" NOx_normed="40.41" fuel_normed="41298.61" electricity_normed="0.00"
            traveltime="27.26" CO_perVeh="580.76" CO2_perVeh="105629.86" HC_perVeh="3.86" PMx_perVeh="7.60" NOx_perVeh="33.51" fuel_perVeh="34243.38" electricity_perVeh="0.00"/>
        <edge id="CtoS" sampledSeconds="0.00" CO_abs="0.00" CO2_abs="0.00" HC_abs="0.00" PMx_abs="0.00" NOx_abs="0.00" fuel_abs="0.00" electricity_abs="0.00"
            CO_normed="0.00" CO2_normed="0.00" HC_normed="0.00" PMx_normed="0.00" NOx_normed="0.00" fuel_normed="0.00" electricity_normed="0.00"/>
        <edge id="EtoC" sampledSeconds="27.90" CO_abs="444.21" CO2_abs="90962.75" HC_abs="2.96" PMx_abs="7.65" NOx_abs="29.63" fuel_abs="29488.73" electricity_abs="0.00"
            CO_normed="533.05" CO2_normed="109155.30" HC_normed="3.55" PMx_normed="9.18" NOx_normed="35.56" fuel_normed="35386.48" electricity_normed="0.00"
            traveltime="27.91" CO_perVeh="444.43" CO2_perVeh="91006.69" HC_perVeh="2.96" PMx_perVeh="7.66" NOx_perVeh="29.65" fuel_perVeh="29502.98" electricity_perVeh="0.00"/>
        <edge id="CtoE" sampledSeconds="0.00" CO_abs="0.00" CO2_abs="0.00" HC_abs="0.00" PMx_abs="0.00" NOx_abs="0.00" fuel_abs="0.00" electricity_abs="0.00"
            CO_normed="0.00" CO2_normed="0.00" HC_normed="0.00" PMx_normed="0.00" NOx_normed="0.00" fuel_normed="0.00" electricity_normed="0.00"/>
        <edge id="WtoC" sampledSeconds="17.90" CO_abs="317.49" CO2_abs="59629.49" HC_abs="2.11" PMx_abs="4.77" NOx_abs="19.23" fuel_abs="19330.90" electricity_abs="0.00"
            CO_normed="380.98" CO2_normed="71555.39" HC_normed="2.53" PMx_normed="5.72" NOx_normed="23.08" fuel_normed="23197.09" electricity_normed="0.00"
            traveltime="26.72" CO_perVeh="473.90" CO2_perVeh="89006.36" HC_perVeh="3.15" PMx_perVeh="7.11" NOx_perVeh="28.70" fuel_perVeh="28854.40" electricity_perVeh="0.00"/>
        <edge id="CtoW" sampledSeconds="0.00" CO_abs="0.00" CO2_abs="0.00" HC_abs="0.00" PMx_abs="0.00" NOx_abs="0.00" fuel_abs="0.00" electricity_abs="0.00"
            CO_normed="0.00" CO2_normed="0.00" HC_normed="0.00" PMx_normed="0.00" NOx_normed="0.00" fuel_normed="0.00" electricity_normed="0.00"/>
    </interval>
    <interval begin="20.00" end="30.00" id="edgeStats">
        <edge id="NtoC" sampledSeconds="32.49" CO_abs="315.92" CO2_abs="77256.24" HC_abs="2.11" PMx_abs="7.46" NOx_abs="25.31" fuel_abs="25045.36" electricity_abs="0.00"
            CO_normed="379.11" CO2_normed="92707.48" HC_normed="2.53" PMx_normed="8.95" NOx_normed="30.37" fuel_normed="30054.44" electricity_normed="0.00"
            traveltime="28.20" CO_perVeh="274.26" CO2_perVeh="67066.78" HC_perVeh="1.83" PMx_perVeh="6.48" NOx_perVeh="21.97" fuel_perVeh="21742.09" electricity_perVeh="0.00"/>
        <edge id="CtoN" sampledSeconds="4.42" CO_abs="163.40" CO2_abs="24165.27" HC_abs="1.08" PMx_abs="1.61" NOx_abs="8.04" fuel_abs="7834.00" electricity_abs="0.00"
            CO_normed="196.08" CO2_normed="28998.32" HC_normed="1.30" PMx_normed="1.93" NOx_normed="9.64" fuel_normed="9400.80" electricity_normed="0.00"
            traveltime="25.83" CO_perVeh="954.19" CO2_perVeh="141116.60" HC_perVeh="6.31" PMx_perVeh="9.41" NOx_perVeh="46.93" fuel_perVeh="45747.79" electricity_perVeh="0.00"/>
        <edge id="StoC" sampledSeconds="31.48" CO_abs="403.20" CO2_abs="80000.57" HC_abs="2.71" PMx_abs="8.61" NOx_abs="26.60" fuel_abs="25935.03" electricity_abs="0.00"
            CO_normed="483.84" CO2_normed="96000.68" HC_normed="3.25" PMx_normed="10.34" NOx_normed="31.92" fuel_normed="31122.03" electricity_normed="0.00"
            traveltime="24.47" CO_perVeh="313.45" CO2_perVeh="62191.68" HC_perVeh="2.10" PMx_perVeh="6.70" NOx_perVeh="20.68" fuel_perVeh="20161.64" electricity_perVeh="0.00"/>
        <edge id="CtoS" sampledSeconds="3.41" CO_abs="124.18" CO2_abs="19071.35" HC_abs="0.82" PMx_abs="1.20" NOx_abs="6.27" fuel_abs="6182.63" electricity_abs="0.00"
            CO_normed="149.02" CO2_normed="22885.62" HC_normed="0.98" PMx_normed="1.44" NOx_normed="7.52" fuel_normed="7419.16" electricity_normed="0.00"
            traveltime="27.13" CO_perVeh="987.69" CO2_perVeh="151687.00" HC_perVeh="6.52" PMx_perVeh="9.56" NOx_perVeh="49.87" fuel_perVeh="49174.53" electricity_perVeh="0.00"/>
        <edge id="EtoC" sampledSeconds="31.58" CO_abs="360.35" CO2_abs="78557.96" HC_abs="2.41" PMx_abs="7.97" NOx_abs="25.98" fuel_abs="25467.36" electricity_abs="0.00"
            CO_normed="432.42" CO2_normed="94269.55" HC_normed="2.90" PMx_normed="9.56" NOx_normed="31.17" fuel_normed="30560.83" electricity_normed="0.00"
            traveltime="26.22" CO_perVeh="299.22" CO2_perVeh="65231.59" HC_perVeh="2.00" PMx_perVeh="6.61" NOx_perVeh="21.57" fuel_perVeh="21147.14" electricity_perVeh="0.00"/>
        <edge id="CtoE" sampledSeconds="4.41" CO_abs="165.56" CO2_abs="23713.74" HC_abs="1.09" PMx_abs="1.57" NOx_abs="7.93" fuel_abs="7687.62" electricity_abs="0.00"
            CO_normed="198.67" CO2_normed="28456.48" HC_normed="1.31" PMx_normed="1.88" NOx_normed="9.51" fuel_normed="9225.14" electricity_normed="0.00"
            traveltime="25.21" CO_perVeh="947.22" CO2_perVeh="135675.06" HC_perVeh="6.26" PMx_perVeh="8.99" NOx_perVeh="45.36" fuel_perVeh="43983.72" electricity_perVeh="0.00"/>
        <edge id="WtoC" sampledSeconds="21.49" CO_abs="275.54" CO2_abs="58505.61" HC_abs="1.84" PMx_abs="5.08" NOx_abs="18.73" fuel_abs="18966.58" electricity_abs="0.00"
            CO_normed="330.65" CO2_normed="70206.73" HC_normed="2.21" PMx_normed="6.10" NOx_normed="22.48" fuel_normed="22759.90" electricity_normed="0.00"
            traveltime="26.94" CO_perVeh="345.38" CO2_perVeh="73333.12" HC_perVeh="2.31" PMx_perVeh="6.37" NOx_perVeh="23.48" fuel_perVeh="23773.43" electricity_perVeh="0.00"/>
        <edge id="CtoW" sampledSeconds="4.32" CO_abs="162.06" CO2_abs="23845.86" HC_abs="1.07" PMx_abs="1.64" NOx_abs="7.94" fuel_abs="7730.46" electricity_abs="0.00"
            CO_normed="194.47" CO2_normed="28615.03" HC_normed="1.29" PMx_normed="1.97" NOx_normed="9.53" fuel_normed="9276.55" electricity_normed="0.00"
            traveltime="25.32" CO_perVeh="949.79" CO2_perVeh="139757.14" HC_perVeh="6.28" PMx_perVeh="9.63" NOx_perVeh="46.56" fuel_perVeh="45307.09" electricity_perVeh="0.00"/>
    </interval>
    <interval begin="30.00" end="40.00" id="edgeStats">
        <edge id="NtoC" sampledSeconds="29.42" CO_abs="321.41" CO2_abs="69433.01" HC_abs="2.15" PMx_abs="6.83" NOx_abs="22.92" fuel_abs="22509.16" electricity_abs="0.00"
            CO_normed="385.70" CO2_normed="83319.61" HC_normed="2.58" PMx_normed="8.20" NOx_normed="27.50" fuel_normed="27010.99" electricity_normed="0.00"
            traveltime="27.16" CO_perVeh="296.73" CO2_perVeh="64100.80" HC_perVeh="1.98" PMx_perVeh="6.31" NOx_perVeh="21.16" fuel_perVeh="20780.53" electricity_perVeh="0.00"/>
        <edge id="CtoN" sampledSeconds="18.54" CO_abs="418.53" CO2_abs="63081.04" HC_abs="2.79" PMx_abs="6.18" NOx_abs="21.80" fuel_abs="20449.99" electricity_abs="0.00"
            CO_normed="502.24" CO2_normed="75697.25" HC_normed="3.35" PMx_normed="7.42" NOx_normed="26.16" fuel_normed="24539.99" electricity_normed="0.00"
            traveltime="22.56" CO_perVeh="509.20" CO2_perVeh="76746.57" HC_perVeh="3.39" PMx_perVeh="7.52" NOx_perVeh="26.52" fuel_perVeh="24880.17" electricity_perVeh="0.00"/>
        <edge id="StoC" sampledSeconds="25.36" CO_abs="332.97" CO2_abs="66650.63" HC_abs="2.23" PMx_abs="6.23" NOx_abs="21.62" fuel_abs="21607.09" electricity_abs="0.00"
            CO_normed="399.56" CO2_normed="79980.75" HC_normed="2.67" PMx_normed="7.48" NOx_normed="25.94" fuel_normed="25928.51" electricity_normed="0.00"
            traveltime="25.91" CO_perVeh="340.27" CO2_perVeh="68111.79" HC_perVeh="2.27" PMx_perVeh="6.37" NOx_perVeh="22.09" fuel_perVeh="22080.78" electricity_perVeh="0.00"/>
        <edge id="CtoS" sampledSeconds="14.48" CO_abs="167.90" CO2_abs="35757.68" HC_abs="1.12" PMx_abs="4.09" NOx_abs="12.34" fuel_abs="11592.21" electricity_abs="0.00"
            CO_normed="201.47" CO2_normed="42909.21" HC_normed="1.35" PMx_normed="4.90" NOx_normed="14.81" fuel_normed="13910.65" electricity_normed="0.00"
            traveltime="25.37" CO_perVeh="294.24" CO2_perVeh="62666.34" HC_perVeh="1.97" PMx_perVeh="7.16" NOx_perVeh="21.63" fuel_perVeh="20315.67" electricity_perVeh="0.00"/>
        <edge id="EtoC" sampledSeconds="27.40" CO_abs="243.52" CO2_abs="60224.39" HC_abs="1.63" PMx_abs="5.78" NOx_abs="19.49" fuel_abs="19523.84" electricity_abs="0.00"
            CO_normed="292.23" CO2_normed="72269.26" HC_normed="1.96" PMx_normed="6.94" NOx_normed="23.39" fuel_normed="23428.61" electricity_normed="0.00"
            traveltime="28.35" CO_perVeh="251.98" CO2_perVeh="62317.40" HC_perVeh="1.69" PMx_perVeh="5.98" NOx_perVeh="20.17" fuel_perVeh="20202.37" electricity_perVeh="0.00"/>
        <edge id="CtoE" sampledSeconds="12.42" CO_abs="222.69" CO2_abs="36355.58" HC_abs="1.49" PMx_abs="3.81" NOx_abs="12.55" fuel_abs="11785.99" electricity_abs="0.00"
            CO_normed="267.23" CO2_normed="43626.69" HC_normed="1.78" PMx_normed="4.58" NOx_normed="15.06" fuel_normed="14143.19" electricity_normed="0.00"
            traveltime="22.87" CO_perVeh="410.05" CO2_perVeh="66943.62" HC_perVeh="2.74" PMx_perVeh="7.02" NOx_perVeh="23.11" fuel_perVeh="21702.22" electricity_perVeh="0.00"/>
        <edge id="WtoC" sampledSeconds="21.48" CO_abs="225.89" CO2_abs="51993.20" HC_abs="1.51" PMx_abs="4.63" NOx_abs="16.67" fuel_abs="16855.38" electricity_abs="0.00"
            CO_normed="271.07" CO2_normed="62391.84" HC_normed="1.81" PMx_normed="5.56" NOx_normed="20.00" fuel_normed="20226.45" electricity_normed="0.00"
            traveltime="27.84" CO_perVeh="292.82" CO2_perVeh="67396.90" HC_perVeh="1.96" PMx_perVeh="6.01" NOx_perVeh="21.60" fuel_perVeh="21849.01" electricity_perVeh="0.00"/>
        <edge id="CtoW" sampledSeconds="16.50" CO_abs="248.37" CO2_abs="48018.74" HC_abs="1.66" PMx_abs="4.94" NOx_abs="16.32" fuel_abs="15567.05" electricity_abs="0.00"
            CO_normed="298.04" CO2_normed="57622.49" HC_normed="1.99" PMx_normed="5.92" NOx_normed="19.59" fuel_normed="18680.46" electricity_normed="0.00"
            traveltime="24.94" CO_perVeh="375.42" CO2_perVeh="72583.08" HC_perVeh="2.51" PMx_perVeh="7.46" NOx_perVeh="24.67" fuel_perVeh="23530.48" electricity_perVeh="0.00"/>
    </interval>
    <interval begin="40.00" end="50.00" id="edgeStats">
        <edge id="NtoC" sampledSeconds="21.81" CO_abs="313.88" CO2_abs="59790.75" HC_abs="2.09" PMx_abs="5.53" NOx_abs="19.69" fuel_abs="19383.25" electricity_abs="0.00"
            CO_normed="376.66" CO2_normed="71748.90" HC_normed="2.51" PMx_normed="6.64" NOx_normed="23.62" fuel_normed="23259.90" electricity_normed="0.00"
            traveltime="25.88" CO_perVeh="372.50" CO2_perVeh="70956.61" HC_perVeh="2.49" PMx_perVeh="6.57" NOx_perVeh="23.36" fuel_perVeh="23003.05" electricity_perVeh="0.00"/>
        <edge id="CtoN" sampledSeconds="28.18" CO_abs="398.29" CO2_abs="62642.42" HC_abs="2.68" PMx_abs="8.62" NOx_abs="22.68" fuel_abs="20307.94" electricity_abs="0.00"
            CO_normed="477.95" CO2_normed="75170.90" HC_normed="3.22" PMx_normed="10.35" NOx_normed="27.22" fuel_normed="24369.53" electricity_normed="0.00"
            traveltime="21.34" CO_perVeh="301.57" CO2_perVeh="47430.37" HC_perVeh="2.03" PMx_perVeh="6.53" NOx_perVeh="17.17" fuel_perVeh="15376.37" electricity_perVeh="0.00"/>
        <edge id="StoC" sampledSeconds="21.70" CO_abs="301.40" CO2_abs="56023.21" HC_abs="2.01" PMx_abs="5.16" NOx_abs="18.52" fuel_abs="18161.86" electricity_abs="0.00"
            CO_normed="361.68" CO2_normed="67227.85" HC_normed="2.41" PMx_normed="6.20" NOx_normed="22.22" fuel_normed="21794.24" electricity_normed="0.00"
            traveltime="25.72" CO_perVeh="357.17" CO2_perVeh="66389.32" HC_perVeh="2.38" PMx_perVeh="6.12" NOx_perVeh="21.95" fuel_perVeh="21522.40" electricity_perVeh="0.00"/>
        <edge id="CtoS" sampledSeconds="30.09" CO_abs="316.04" CO2_abs="65690.07" HC_abs="2.12" PMx_abs="7.94" NOx_abs="23.04" fuel_abs="21295.96" electricity_abs="0.00"
            CO_normed="379.25" CO2_normed="78828.08" HC_normed="2.54" PMx_normed="9.53" NOx_normed="27.65" fuel_normed="25555.15" electricity_normed="0.00"
            traveltime="25.08" CO_perVeh="263.46" CO2_perVeh="54760.37" HC_perVeh="1.77" PMx_perVeh="6.62" NOx_perVeh="19.21" fuel_perVeh="17752.68" electricity_perVeh="0.00"/>
        <edge id="EtoC" sampledSeconds="21.90" CO_abs="331.55" CO2_abs="59689.97" HC_abs="2.21" PMx_abs="5.70" NOx_abs="19.98" fuel_abs="19350.59" electricity_abs="0.00"
            CO_normed="397.86" CO2_normed="71627.96" HC_normed="2.65" PMx_normed="6.84" NOx_normed="23.98" fuel_normed="23220.71" electricity_normed="0.00"
            traveltime="25.37" CO_perVeh="384.15" CO2_perVeh="69159.52" HC_perVeh="2.56" PMx_perVeh="6.61" NOx_perVeh="23.15" fuel_perVeh="22420.48" electricity_perVeh="0.00"/>
        <edge id="CtoE" sampledSeconds="17.91" CO_abs="244.69" CO2_abs="40139.19" HC_abs="1.65" PMx_abs="5.61" NOx_abs="14.56" fuel_abs="13012.67" electricity_abs="0.00"
            CO_normed="293.62" CO2_normed="48167.03" HC_normed="1.98" PMx_normed="6.74" NOx_normed="17.48" fuel_normed="15615.20" electricity_normed="0.00"
            traveltime="21.74" CO_perVeh="296.96" CO2_perVeh="48714.61" HC_perVeh="2.00" PMx_perVeh="6.81" NOx_perVeh="17.68" fuel_perVeh="15792.72" electricity_perVeh="0.00"/>
        <edge id="WtoC" sampledSeconds="21.90" CO_abs="333.37" CO2_abs="61591.81" HC_abs="2.22" PMx_abs="5.84" NOx_abs="20.62" fuel_abs="19967.15" electricity_abs="0.00"
            CO_normed="400.04" CO2_normed="73910.18" HC_normed="2.67" PMx_normed="7.01" NOx_normed="24.74" fuel_normed="23960.58" electricity_normed="0.00"
            traveltime="25.80" CO_perVeh="392.77" CO2_perVeh="72567.47" HC_perVeh="2.62" PMx_perVeh="6.88" NOx_perVeh="24.29" fuel_perVeh="23525.29" electricity_perVeh="0.00"/>
        <edge id="CtoW" sampledSeconds="28.00" CO_abs="302.57" CO2_abs="59027.62" HC_abs="2.04" PMx_abs="7.95" NOx_abs="21.19" fuel_abs="19136.11" electricity_abs="0.00"
            CO_normed="363.09" CO2_normed="70833.15" HC_normed="2.44" PMx_normed="9.54" NOx_normed="25.43" fuel_normed="22963.33" electricity_normed="0.00"
            traveltime="23.77" CO_perVeh="256.91" CO2_perVeh="50120.73" HC_perVeh="1.73" PMx_perVeh="6.75" NOx_perVeh="17.99" fuel_perVeh="16248.59" electricity_perVeh="0.00"/>
    </interval>
    <interval begin="50.00" end="60.00" id="edgeStats">
        <edge id="NtoC" sampledSeconds="20.00" CO_abs="343.21" CO2_abs="59943.76" HC_abs="2.29" PMx_abs="5.66" NOx_abs="20.22" fuel_abs="19432.92" electricity_abs="0.00"
            CO_normed="411.85" CO2_normed="71932.51" HC_normed="2.74" PMx_normed="6.79" NOx_normed="24.27" fuel_normed="23319.50" electricity_normed="0.00"
            traveltime="24.53" CO_perVeh="420.96" CO2_perVeh="73523.64" HC_perVeh="2.81" PMx_perVeh="6.94" NOx_perVeh="24.81" fuel_perVeh="23835.32" electricity_perVeh="0.00"/>
        <edge id="CtoN" sampledSeconds="24.51" CO_abs="402.35" CO2_abs="63947.34" HC_abs="2.70" PMx_abs="7.78" NOx_abs="22.69" fuel_abs="20730.93" electricity_abs="0.00"
            CO_normed="482.83" CO2_normed="76736.80" HC_normed="3.24" PMx_normed="9.34" NOx_normed="27.23" fuel_normed="24877.11" electricity_normed="0.00"
            traveltime="21.98" CO_perVeh="360.75" CO2_perVeh="57334.49" HC_perVeh="2.42" PMx_perVeh="6.98" NOx_perVeh="20.34" fuel_perVeh="18587.13" electricity_perVeh="0.00"/>
        <edge id="StoC" sampledSeconds="20.00" CO_abs="316.98" CO2_abs="57648.79" HC_abs="2.11" PMx_abs="5.53" NOx_abs="19.39" fuel_abs="18688.93" electricity_abs="0.00"
            CO_normed="380.37" CO2_normed="69178.55" HC_normed="2.54" PMx_normed="6.64" NOx_normed="23.27" fuel_normed="22426.71" electricity_normed="0.00"
            traveltime="24.79" CO_perVeh="392.84" CO2_perVeh="71446.50" HC_perVeh="2.62" PMx_perVeh="6.85" NOx_perVeh="24.03" fuel_perVeh="23161.95" electricity_perVeh="0.00"/>
        <edge id="CtoS" sampledSeconds="30.22" CO_abs="361.22" CO2_abs="69540.08" HC_abs="2.42" PMx_abs="8.56" NOx_abs="24.68" fuel_abs="22544.09" electricity_abs="0.00"
            CO_normed="433.47" CO2_normed="83448.09" HC_normed="2.91" PMx_normed="10.27" NOx_normed="29.62" fuel_normed="27052.91" electricity_normed="0.00"
            traveltime="24.62" CO_perVeh="294.24" CO2_perVeh="56645.23" HC_perVeh="1.97" PMx_perVeh="6.97" NOx_perVeh="20.11" fuel_perVeh="18363.73" electricity_perVeh="0.00"/>
        <edge id="EtoC" sampledSeconds="20.90" CO_abs="304.64" CO2_abs="57122.82" HC_abs="2.03" PMx_abs="5.37" NOx_abs="19.00" fuel_abs="18518.41" electricity_abs="0.00"
            CO_normed="365.57" CO2_normed="68547.39" HC_normed="2.44" PMx_normed="6.45" NOx_normed="22.80" fuel_normed="22222.09" electricity_normed="0.00"
            traveltime="25.05" CO_perVeh="365.13" CO2_perVeh="68465.65" HC_perVeh="2.44" PMx_perVeh="6.44" NOx_perVeh="22.77" fuel_perVeh="22195.59" electricity_perVeh="0.00"/>
        <edge id="CtoE" sampledSeconds="17.87" CO_abs="266.79" CO2_abs="46041.88" HC_abs="1.78" PMx_abs="5.18" NOx_abs="16.04" fuel_abs="14926.19" electricity_abs="0.00"
            CO_normed="320.14" CO2_normed="55250.25" HC_normed="2.14" PMx_normed="6.21" NOx_normed="19.25" fuel_normed="17911.43" electricity_normed="0.00"
            traveltime="23.48" CO_perVeh="350.59" CO2_perVeh="60505.02" HC_perVeh="2.34" PMx_perVeh="6.80" NOx_perVeh="21.08" fuel_perVeh="19614.96" electricity_perVeh="0.00"/>
        <edge id="WtoC" sampledSeconds="22.08" CO_abs="271.97" CO2_abs="55107.54" HC_abs="1.82" PMx_abs="5.42" NOx_abs="18.33" fuel_abs="17865.10" electricity_abs="0.00"
            CO_normed="326.37" CO2_normed="66129.05" HC_normed="2.18" PMx_normed="6.51" NOx_normed="22.00" fuel_normed="21438.12" electricity_normed="0.00"
            traveltime="25.85" CO_perVeh="318.41" CO2_perVeh="64516.60" HC_perVeh="2.13" PMx_perVeh="6.35" NOx_perVeh="21.46" fuel_perVeh="20915.39" electricity_perVeh="0.00"/>
        <edge id="CtoW" sampledSeconds="29.10" CO_abs="320.97" CO2_abs="65872.48" HC_abs="2.15" PMx_abs="8.14" NOx_abs="23.22" fuel_abs="21355.10" electricity_abs="0.00"
            CO_normed="385.17" CO2_normed="79046.97" HC_normed="2.58" PMx_normed="9.77" NOx_normed="27.86" fuel_normed="25626.12" electricity_normed="0.00"
            traveltime="24.90" CO_perVeh="274.67" CO2_perVeh="56368.93" HC_perVeh="1.84" PMx_perVeh="6.97" NOx_perVeh="19.87" fuel_perVeh="18274.16" electricity_perVeh="0.00"/>
    </interval>
    <interval begin="60.00" end="70.00" id="edgeStats">
        <edge id="NtoC" sampledSeconds="22.40" CO_abs="305.16" CO2_abs="63316.44" HC_abs="2.03" PMx_abs="5.34" NOx_abs="20.31" fuel_abs="20526.18" electricity_abs="0.00"
            CO_normed="366.20" CO2_normed="75979.72" HC_normed="2.44" PMx_normed="6.41" NOx_normed="24.38" fuel_normed="24631.41" electricity_normed="0.00"
            traveltime="27.23" CO_perVeh="370.97" CO2_perVeh="76971.03" HC_perVeh="2.47" PMx_perVeh="6.49" NOx_perVeh="24.69" fuel_perVeh="24952.78" electricity_perVeh="0.00"/>
        <edge id="CtoN" sampledSeconds="17.72" CO_abs="287.46" CO2_abs="46964.90" HC_abs="1.92" PMx_abs="5.10" NOx_abs="16.38" fuel_abs="15225.41" electricity_abs="0.00"
            CO_normed="344.95" CO2_normed="56357.89" HC_normed="2.30" PMx_normed="6.11" NOx_normed="19.65" fuel_normed="18270.49" electricity_normed="0.00"
            traveltime="23.04" CO_perVeh="373.72" CO2_perVeh="61057.76" HC_perVeh="2.50" PMx_perVeh="6.62" NOx_perVeh="21.29" fuel_perVeh="19794.13" electricity_perVeh="0.00"/>
        <edge id="StoC" sampledSeconds="22.39" CO_abs="313.51" CO2_abs="64840.65" HC_abs="2.09" PMx_abs="5.51" NOx_abs="20.82" fuel_abs="21020.31" electricity_abs="0.00"
            CO_normed="376.22" CO2_normed="77808.78" HC_normed="2.51" PMx_normed="6.61" NOx_normed="24.98" fuel_normed="25224.37" electricity_normed="0.00"
            traveltime="27.29" CO_perVeh="382.10" CO2_perVeh="79026.61" HC_perVeh="2.55" PMx_perVeh="6.72" NOx_perVeh="25.38" fuel_perVeh="25619.17" electricity_perVeh="0.00"/>
        <edge id="CtoS" sampledSeconds="25.86" CO_abs="363.15" CO2_abs="62968.86" HC_abs="2.43" PMx_abs="7.26" NOx_abs="22.15" fuel_abs="20413.72" electricity_abs="0.00"
            CO_normed="435.77" CO2_normed="75562.63" HC_normed="2.92" PMx_normed="8.71" NOx_normed="26.58" fuel_normed="24496.47" electricity_normed="0.00"
            traveltime="23.65" CO_perVeh="332.04" CO2_perVeh="57574.53" HC_perVeh="2.22" PMx_perVeh="6.63" NOx_perVeh="20.25" fuel_perVeh="18664.95" electricity_perVeh="0.00"/>
        <edge id="EtoC" sampledSeconds="21.47" CO_abs="292.55" CO2_abs="63279.37" HC_abs="1.95" PMx_abs="5.07" NOx_abs="20.19" fuel_abs="20514.16" electricity_abs="0.00"
            CO_normed="351.06" CO2_normed="75935.24" HC_normed="2.34" PMx_normed="6.08" NOx_normed="24.22" fuel_normed="24616.99" electricity_normed="0.00"
            traveltime="28.90" CO_perVeh="393.79" CO2_perVeh="85179.16" HC_perVeh="2.62" PMx_perVeh="6.82" NOx_perVeh="27.17" fuel_perVeh="27613.72" electricity_perVeh="0.00"/>
        <edge id="CtoE" sampledSeconds="18.42" CO_abs="296.58" CO2_abs="49758.54" HC_abs="1.98" PMx_abs="5.10" NOx_abs="17.25" fuel_abs="16131.06" electricity_abs="0.00"
            CO_normed="355.89" CO2_normed="59710.24" HC_normed="2.37" PMx_normed="6.12" NOx_normed="20.70" fuel_normed="19357.27" electricity_normed="0.00"
            traveltime="24.24" CO_perVeh="390.24" CO2_perVeh="65471.87" HC_perVeh="2.60" PMx_perVeh="6.71" NOx_perVeh="22.70" fuel_perVeh="21225.11" electricity_perVeh="0.00"/>
        <edge id="WtoC" sampledSeconds="21.48" CO_abs="312.62" CO2_abs="65598.74" HC_abs="2.08" PMx_abs="4.99" NOx_abs="20.95" fuel_abs="21266.05" electricity_abs="0.00"
            CO_normed="375.14" CO2_normed="78718.49" HC_normed="2.49" PMx_normed="5.99" NOx_normed="25.15" fuel_normed="25519.26" electricity_normed="0.00"
            traveltime="29.72" CO_perVeh="432.54" CO2_perVeh="90762.37" HC_perVeh="2.87" PMx_perVeh="6.91" NOx_perVeh="28.99" fuel_perVeh="29423.70" electricity_perVeh="0.00"/>
        <edge id="CtoW" sampledSeconds="22.98" CO_abs="409.57" CO2_abs="65004.71" HC_abs="2.73" PMx_abs="6.69" NOx_abs="22.69" fuel_abs="21073.66" electricity_abs="0.00"
            CO_normed="491.49" CO2_normed="78005.65" HC_normed="3.28" PMx_normed="8.03" NOx_normed="27.23" fuel_normed="25288.39" electricity_normed="0.00"
            traveltime="23.58" CO_perVeh="420.15" CO2_perVeh="66682.84" HC_perVeh="2.80" PMx_perVeh="6.86" NOx_perVeh="23.27" fuel_perVeh="21617.69" electricity_perVeh="0.00"/>
    </interval>
    <interval begin="70.00" end="80.00" id="edgeStats">
        <edge id="NtoC" sampledSeconds="21.40" CO_abs="277.65" CO2_abs="60979.02" HC_abs="1.85" PMx_abs="4.73" NOx_abs="19.34" fuel_abs="19768.41" electricity_abs="0.00"
            CO_normed="333.18" CO2_normed="73174.83" HC_normed="2.21" PMx_normed="5.68" NOx_normed="23.21" fuel_normed="23722.10" electricity_normed="0.00"
            traveltime="29.18" CO_perVeh="378.70" CO2_perVeh="83173.46" HC_perVeh="2.52" PMx_perVeh="6.45" NOx_perVeh="26.38" fuel_perVeh="26963.49" electricity_perVeh="0.00"/>
        <edge id="CtoN" sampledSeconds="18.31" CO_abs="308.27" CO2_abs="50921.27" HC_abs="2.06" PMx_abs="5.34" NOx_abs="17.69" fuel_abs="16508.00" electricity_abs="0.00"
            CO_normed="369.93" CO2_normed="61105.52" HC_normed="2.47" PMx_normed="6.40" NOx_normed="21.23" fuel_normed="19809.60" electricity_normed="0.00"
            traveltime="23.58" CO_perVeh="396.96" CO2_perVeh="65570.38" HC_perVeh="2.65" PMx_perVeh="6.87" NOx_perVeh="22.78" fuel_perVeh="21257.05" electricity_perVeh="0.00"/>
        <edge id="StoC" sampledSeconds="21.87" CO_abs="318.62" CO2_abs="65399.87" HC_abs="2.12" PMx_abs="5.30" NOx_abs="20.98" fuel_abs="21201.59" electricity_abs="0.00"
            CO_normed="382.34" CO2_normed="78479.85" HC_normed="2.54" PMx_normed="6.36" NOx_normed="25.18" fuel_normed="25441.91" electricity_normed="0.00"
            traveltime="28.21" CO_perVeh="411.02" CO2_perVeh="84366.93" HC_perVeh="2.73" PMx_perVeh="6.83" NOx_perVeh="27.07" fuel_perVeh="27350.41" electricity_perVeh="0.00"/>
        <edge id="CtoS" sampledSeconds="18.42" CO_abs="318.24" CO2_abs="50427.61" HC_abs="2.12" PMx_abs="5.28" NOx_abs="17.60" fuel_abs="16347.96" electricity_abs="0.00"
            CO_normed="381.88" CO2_normed="60513.13" HC_normed="2.55" PMx_normed="6.33" NOx_normed="21.12" fuel_normed="19617.55" electricity_normed="0.00"