<?xml version="1.0" encoding="UTF-8"?>

<!-- generated on 2025-12-02T11:37:17.359319+00:00 by Eclipse SUMO sumo 1.25.0
<sumoConfiguration xmlns:xsi="http://www.w3.org/2001/XMLSchema-instance" xsi:noNamespaceSchemaLocation="http://sumo.dlr.de/xsd/sumoConfiguration.xsd">

    <input>
        <net-file value="mon_reseau_simple.net.xml"/>
        <route-files value="mes_routes.rou.xml"/>
    </input>

    <output>
        <tripinfo-output value="tripinfo.xml"/>
    </output>

    <time>
        <begin value="0"/>
        <end value="3600"/>
        <step-length value="0.1"/>
    </time>

</sumoConfiguration>
-->

<tripinfos xmlns:xsi="http://www.w3.org/2001/XMLSchema-instance" xsi:noNamespaceSchemaLocation="http://sumo.dlr.de/xsd/tripinfo_file.xsd">
    <tripinfo id="flow_sn_cars.0" depart="0.00" departLane="StoC_0" departPos="5.10" departSpeed="0.00" departDelay="0.00" arrival="47.90" arrivalLane="CtoN_0" arrivalPos="300.00" arrivalSpeed="13.79" duration="47.90" routeLength="594.90" waitingTime="0.00" waitingCount="0" stopTime="0.00" timeLoss="5.05" rerouteNo="0" devices="tripinfo_flow_sn_cars.0" vType="car" speedFactor="1.01" vaporized=""/>
    <tripinfo id="flow_ew_cars.0" depart="0.00" departLane="EtoC_0" departPos="5.10" departSpeed="0.00" departDelay="0.00" arrival="47.90" arrivalLane="CtoW_0" arrivalPos="300.00" arrivalSpeed="13.88" duration="47.90" routeLength="594.90" waitingTime="0.00" waitingCount="0" stopTime="0.00" timeLoss="5.07" rerouteNo="0" devices="tripinfo_flow_ew_cars.0" vType="car" speedFactor="1.08" vaporized=""/>
    <tripinfo id="flow_we_cars.0" depart="0.00" departLane="WtoC_0" departPos="5.10" departSpeed="0.00" departDelay="0.00" arrival="47.90" arrivalLane="CtoE_0" arrivalPos="300.00" arrivalSpeed="13.83" duration="47.90" routeLength="594.90" waitingTime="0.00" waitingCount="0" stopTime="0.00" timeLoss="4.98" rerouteNo="0" devices="tripinfo_flow_we_cars.0" vType="car" speedFactor="1.03" vaporized=""/>
    <tripinfo id="flow_ns_cars.0" depart="0.00" departLane="NtoC_0" departPos="5.10" departSpeed="0.00" departDelay="0.00" arrival="50.20" arrivalLane="CtoS_0" arrivalPos="300.00" arrivalSpeed="12.99" duration="50.20" routeLength="594.90" waitingTime="0.00" waitingCount="0" stopTime="0.00" timeLoss="4.47" rerouteNo="0" devices="tripinfo_flow_ns_cars.0" vType="car" speedFactor="0.94" vaporized=""/>
    <tripinfo id="ambulance_1" depart="10.00" departLane="StoC_0" departPos="6.10" departSpeed="0.00" departDelay="0.00" arrival="54.50" arrivalLane="CtoN_0" arrivalPos="300.00" arrivalSpeed="14.68" duration="44.50" routeLength="593.90" waitingTime="0.00" waitingCount="0" stopTime="0.00" timeLoss="4.08" rerouteNo="0" devices="tripinfo_ambulance_1" vType="ambulance" speedFactor="1.06" vaporized=""/>
    <tripinfo id="flow_we_cars.1" depart="12.00" departLane="WtoC_0" departPos="5.10" departSpeed="0.00" departDelay="0.00" arrival="59.90" arrivalLane="CtoE_0" arrivalPos="300.00" arrivalSpeed="13.83" duration="47.90" routeLength="594.90" waitingTime="0.00" waitingCount="0" stopTime="0.00" timeLoss="5.02" rerouteNo="0" devices="tripinfo_flow_we_cars.1" vType="car" speedFactor="1.05" vaporized=""/>
    <tripinfo id="flow_sn_cars.1" depart="12.40" departLane="StoC_0" departPos="5.10" departSpeed="0.00" departDelay="0.40" arrival="60.20" arrivalLane="CtoN_0" arrivalPos="300.00" arrivalSpeed="13.88" duration="47.80" routeLength="594.90" waitingTime="0.00" waitingCount="0" stopTime="0.00" timeLoss="4.88" rerouteNo="0" devices="tripinfo_flow_sn_cars.1" vType="car" speedFactor="1.09" vaporized=""/>
    <tripinfo id="flow_ew_bus.0" depart="3.90" departLane="EtoC_0" departPos="12.10" departSpeed="0.00" departDelay="3.90" arrival="61.20" arrivalLane="CtoW_0" arrivalPos="300.00" arrivalSpeed="11.97" duration="57.30" routeLength="587.90" waitingTime="0.00" waitingCount="0" stopTime="0.00" timeLoss="8.29" rerouteNo="0" devices="tripinfo_flow_ew_bus.0" vType="bus" speedFactor="1.05" vaporized=""/>
    <tripinfo id="flow_ns_bus.0" depart="3.70" departLane="NtoC_0" departPos="12.10" departSpeed="0.00" departDelay="3.70" arrival="62.40" arrivalLane="CtoS_0" arrivalPos="300.00" arrivalSpeed="11.54" duration="58.70" routeLength="587.90" waitingTime="0.00" waitingCount="0" stopTime="0.00" timeLoss="7.72" rerouteNo="0" devices="tripinfo_flow_ns_bus.0" vType="bus" speedFactor="0.83" vaporized=""/>
    <tripinfo id="flow_ew_cars.1" depart="12.00" departLane="EtoC_0" departPos="5.10" departSpeed="0.00" departDelay="0.00" arrival="63.20" arrivalLane="CtoW_0" arrivalPos="300.00" arrivalSpeed="13.84" duration="51.20" routeLength="594.90" waitingTime="0.00" waitingCount="0" stopTime="0.00" timeLoss="8.34" rerouteNo="0" devices="tripinfo_flow_ew_cars.1" vType="car" speedFactor="1.03" vaporized=""/>
    <tripinfo id="flow_ns_cars.1" depart="12.00" departLane="NtoC_0" departPos="5.10" departSpeed="0.00" departDelay="0.00" arrival="65.90" arrivalLane="CtoS_0" arrivalPos="300.00" arrivalSpeed="11.85" duration="53.90" routeLength="594.90" waitingTime="0.00" waitingCount="0" stopTime="0.00" timeLoss="3.83" rerouteNo="0" devices="tripinfo_flow_ns_cars.1" vType="car" speedFactor="0.86" vaporized=""/>
    <tripinfo id="flow_ns_cars.2" depart="24.00" departLane="NtoC_0" departPos="5.10" departSpeed="0.00" departDelay="0.00" arrival="71.90" arrivalLane="CtoS_0" arrivalPos="300.00" arrivalSpeed="13.80" duration="47.90" routeLength="594.90" waitingTime="0.00" waitingCount="0" stopTime="0.00" timeLoss="4.99" rerouteNo="0" devices="tripinfo_flow_ns_cars.2" vType="car" speedFactor="1.12" vaporized=""/>
    <tripinfo id="flow_sn_cars.2" depart="24.00" departLane="StoC_0" departPos="5.10" departSpeed="0.00" departDelay="0.00" arrival="72.20" arrivalLane="CtoN_0" arrivalPos="300.00" arrivalSpeed="13.76" duration="48.20" routeLength="594.90" waitingTime="0.00" waitingCount="0" stopTime="0.00" timeLoss="4.97" rerouteNo="0" devices="tripinfo_flow_sn_cars.2" vType="car" speedFactor="0.99" vaporized=""/>
    <tripinfo id="flow_ew_cars.2" depart="24.00" departLane="EtoC_0" departPos="5.10" departSpeed="0.00" departDelay="0.00" arrival="74.70" arrivalLane="CtoW_0" arrivalPos="300.00" arrivalSpeed="12.85" duration="50.70" routeLength="594.90" waitingTime="0.00" waitingCount="0" stopTime="0.00" timeLoss="4.45" rerouteNo="0" devices="tripinfo_flow_ew_cars.2" vType="car" speedFactor="0.93" vaporized=""/>
    <tripinfo id="flow_we_cars.2" depart="24.00" departLane="WtoC_0" departPos="5.10" departSpeed="0.00" departDelay="0.00" arrival="77.20" arrivalLane="CtoE_0" arrivalPos="300.00" arrivalSpeed="12.18" duration="53.20" routeLength="594.90" waitingTime="0.00" waitingCount="0" stopTime="0.00" timeLoss="4.37" rerouteNo="0" devices="tripinfo_flow_we_cars.2" vType="car" speedFactor="0.88" vaporized=""/>
    <tripinfo id="flow_ew_cars.3" depart="36.00" departLane="EtoC_0" departPos="5.10" departSpeed="0.00" departDelay="0.00" arrival="83.90" arrivalLane="CtoW_0" arrivalPos="300.00" arrivalSpeed="13.87" duration="47.90" routeLength="594.90" waitingTime="0.00" waitingCount="0" stopTime="0.00" timeLoss="5.03" rerouteNo="0" devices="tripinfo_flow_ew_cars.3" vType="car" speedFactor="1.16" vaporized=""/>
    <tripinfo id="flow_we_cars.3" depart="36.00" departLane="WtoC_0" departPos="5.10" departSpeed="0.00" departDelay="0.00" arrival="83.90" arrivalLane="CtoE_0" arrivalPos="300.00" arrivalSpeed="13.76" duration="47.90" routeLength="594.90" waitingTime="0.00" waitingCount="0" stopTime="0.00" timeLoss="5.06" rerouteNo="0" devices="tripinfo_flow_we_cars.3" vType="car" speedFactor="1.02" vaporized=""/>
    <tripinfo id="flow_ns_cars.3" depart="36.00" departLane="NtoC_0" departPos="5.10" departSpeed="0.00" departDelay="0.00" arrival="86.00" arrivalLane="CtoS_0" arrivalPos="300.00" arrivalSpeed="12.98" duration="50.00" routeLength="594.90" waitingTime="0.00" waitingCount="0" stopTime="0.00" timeLoss="4.41" rerouteNo="0" devices="tripinfo_flow_ns_cars.3" vType="car" speedFactor="0.94" vaporized=""/>
    <tripinfo id="flow_sn_cars.3" depart="36.00" departLane="StoC_0" departPos="5.10" departSpeed="0.00" departDelay="0.00" arrival="86.10" arrivalLane="CtoN_0" arrivalPos="300.00" arrivalSpeed="12.94" duration="50.10" routeLength="594.90" waitingTime="0.00" waitingCount="0" stopTime="0.00" timeLoss="4.32" rerouteNo="0" devices="tripinfo_flow_sn_cars.3" vType="car" speedFactor="0.94" vaporized=""/>
    <tripinfo id="flow_ns_cars.4" depart="48.00" departLane="NtoC_0" departPos="5.10" departSpeed="0.00" departDelay="0.00" arrival="95.70" arrivalLane="CtoS_0" arrivalPos="300.00" arrivalSpeed="13.77" duration="47.70" routeLength="594.90" waitingTime="0.00" waitingCount="0" stopTime="0.00" timeLoss="4.85" rerouteNo="0" devices="tripinfo_flow_ns_cars.4" vType="car" speedFactor="1.01" vaporized=""/>
    <tripinfo id="flow_sn_cars.4" depart="48.00" departLane="StoC_0" departPos="5.10" departSpeed="0.00" departDelay="0.00" arrival="96.80" arrivalLane="CtoN_0" arrivalPos="300.00" arrivalSpeed="13.44" duration="48.80" routeLength="594.90" waitingTime="0.00" waitingCount="0" stopTime="0.00" timeLoss="4.87" rerouteNo="0" devices="tripinfo_flow_sn_cars.4" vType="car" speedFactor="0.97" vaporized=""/>
    <tripinfo id="flow_ew_cars.4" depart="48.00" departLane="EtoC_0" departPos="5.10" departSpeed="0.00" departDelay="0.00" arrival="100.40" arrivalLane="CtoW_0" arrivalPos="300.00" arrivalSpeed="12.36" duration="52.40" routeLength="594.90" waitingTime="0.00" waitingCount="0" stopTime="0.00" timeLoss="4.18" rerouteNo="0" devices="tripinfo_flow_ew_cars.4" vType="car" speedFactor="0.89" vaporized=""/>
    <tripinfo id="flow_we_cars.4" depart="48.00" departLane="WtoC_0" departPos="5.10" departSpeed="0.00" departDelay="0.00" arrival="103.70" arrivalLane="CtoE_0" arrivalPos="300.00" arrivalSpeed="11.43" duration="55.70" routeLength="594.90" waitingTime="0.00" waitingCount="0" stopTime="0.00" timeLoss="3.84" rerouteNo="0" devices="tripinfo_flow_we_cars.4" vType="car" speedFactor="0.83" vaporized=""/>
    <tripinfo id="flow_we_cars.5" depart="60.00" departLane="WtoC_0" departPos="5.10" departSpeed="0.00" departDelay="0.00" arrival="107.90" arrivalLane="CtoE_0" arrivalPos="300.00" arrivalSpeed="13.83" duration="47.90" routeLength="594.90" waitingTime="0.00" waitingCount="0" stopTime="0.00" timeLoss="5.05" rerouteNo="0" devices="tripinfo_flow_we_cars.5" vType="car" speedFactor="1.13" vaporized=""/>
    <tripinfo id="flow_ew_cars.5" depart="60.00" departLane="EtoC_0" departPos="5.10" departSpeed="0.00" departDelay="0.00" arrival="109.90" arrivalLane="CtoW_0" arrivalPos="300.00" arrivalSpeed="13.09" duration="49.90" routeLength="594.90" waitingTime="0.00" waitingCount="0" stopTime="0.00" timeLoss="4.68" rerouteNo="0" devices="tripinfo_flow_ew_cars.5" vType="car" speedFactor="0.95" vaporized=""/>
    <tripinfo id="flow_sn_cars.5" depart="60.00" departLane="StoC_0" departPos="5.10" departSpeed="0.00" departDelay="0.00" arrival="111.10" arrivalLane="CtoN_0" arrivalPos="300.00" arrivalSpeed="12.70" duration="51.10" routeLength="594.90" waitingTime="0.00" waitingCount="0" stopTime="0.00" timeLoss="4.32" rerouteNo="0" devices="tripinfo_flow_sn_cars.5" vType="car" speedFactor="0.92" vaporized=""/>
    <tripinfo id="flow_ns_cars.5" depart="60.00" departLane="NtoC_0" departPos="5.10" departSpeed="0.00" departDelay="0.00" arrival="113.20" arrivalLane="CtoS_0" arrivalPos="300.00" arrivalSpeed="12.03" duration="53.20" routeLength="594.90" waitingTime="0.00" waitingCount="0" stopTime="0.00" timeLoss="4.05" rerouteNo="0" devices="tripinfo_flow_ns_cars.5" vType="car" speedFactor="0.87" vaporized=""/>
    <tripinfo id="flow_we_cars.6" depart="72.00" departLane="WtoC_0" departPos="5.10" departSpeed="0.00" departDelay="0.00" arrival="119.80" arrivalLane="CtoE_0" arrivalPos="300.00" arrivalSpeed="13.76" duration="47.80" routeLength="594.90" waitingTime="0.00" waitingCount="0" stopTime="0.00" timeLoss="4.95" rerouteNo="0" devices="tripinfo_flow_we_cars.6" vType="car" speedFactor="1.01" vaporized=""/>
    <tripinfo id="flow_sn_cars.6" depart="72.00" departLane="StoC_0" departPos="5.10" departSpeed="0.00" departDelay="0.00" arrival="119.90" arrivalLane="CtoN_0" arrivalPos="300.00" arrivalSpeed="13.78" duration="47.90" routeLength="594.90" waitingTime="0.00" waitingCount="0" stopTime="0.00" timeLoss="5.06" rerouteNo="0" devices="tripinfo_flow_sn_cars.6" vType="car" speedFactor="1.18" vaporized=""/>
    <tripinfo id="flow_ew_cars.6" depart="72.00" departLane="EtoC_0" departPos="5.10" departSpeed="0.00" departDelay="0.00" arrival="119.90" arrivalLane="CtoW_0" arrivalPos="300.00" arrivalSpeed="13.85" duration="47.90" routeLength="594.90" waitingTime="0.00" waitingCount="0" stopTime="0.00" timeLoss="5.04" rerouteNo="0" devices="tripinfo_flow_ew_cars.6" vType="car" speedFactor="1.15" vaporized=""/>
    <tripinfo id="flow_ns_cars.6" depart="72.00" departLane="NtoC_0" departPos="5.10" departSpeed="0.00" departDelay="0.00" arrival="122.50" arrivalLane="CtoS_0" arrivalPos="300.00" arrivalSpeed="12.91" duration="50.50" routeLength="594.90" waitingTime="0.00" waitingCount="0" stopTime="0.00" timeLoss="4.49" rerouteNo="0" devices="tripinfo_flow_ns_cars.6" vType="car" speedFactor="0.93" vaporized=""/>
    <tripinfo id="flow_ns_cars.7" depart="84.00" departLane="NtoC_0" departPos="5.10" departSpeed="0.00" departDelay="0.00" arrival="131.70" arrivalLane="CtoS_0" arrivalPos="300.00" arrivalSpeed="13.88" duration="47.70" routeLength="594.90" waitingTime="0.00" waitingCount="0" stopTime="0.00" timeLoss="4.85" rerouteNo="0" devices="tripinfo_flow_ns_cars.7" vType="car" speedFactor="1.17" vaporized=""/>
    <tripinfo id="flow_ew_cars.7" depart="84.00" departLane="EtoC_0" departPos="5.10" departSpeed="0.00" departDelay="0.00" arrival="131.90" arrivalLane="CtoW_0" arrivalPos="300.00" arrivalSpeed="13.80" duration="47.90" routeLength="594.90" waitingTime="0.00" waitingCount="0" stopTime="0.00" timeLoss="5.02" rerouteNo="0" devices="tripinfo_flow_ew_cars.7" vType="car" speedFactor="1.02" vaporized=""/>
    <tripinfo id="flow_sn_cars.7" depart="84.00" departLane="StoC_0" departPos="5.10" departSpeed="0.00" departDelay="0.00" arrival="132.10" arrivalLane="CtoN_0" arrivalPos="300.00" arrivalSpeed="13.77" duration="48.10" routeLength="594.90" waitingTime="0.00" waitingCount="0" stopTime="0.00" timeLoss="5.00" rerouteNo="0" devices="tripinfo_flow_sn_cars.7" vType="car" speedFactor="0.99" vaporized=""/>
    <tripinfo id="flow_we_cars.7" depart="84.00" departLane="WtoC_0" departPos="5.10" departSpeed="0.00" departDelay="0.00" arrival="132.80" arrivalLane="CtoE_0" arrivalPos="300.00" arrivalSpeed="13.41" duration="48.80" routeLength="594.90" waitingTime="0.00" waitingCount="0" stopTime="0.00" timeLoss="4.77" rerouteNo="0" devices="tripinfo_flow_we_cars.7" vType="car" speedFactor="0.97" vaporized=""/>
    <tripinfo id="flow_ns_cars.8" depart="96.00" departLane="NtoC_0" departPos="5.10" departSpeed="0.00" departDelay="0.00" arrival="143.80" arrivalLane="CtoS_0" arrivalPos="300.00" arrivalSpeed="13.83" duration="47.80" routeLength="594.90" waitingTime="0.00" waitingCount="0" stopTime="0.00" timeLoss="4.89" rerouteNo="0" devices="tripinfo_flow_ns_cars.8" vType="car" speedFactor="1.18" vaporized=""/>
    <tripinfo id="flow_sn_cars.8" depart="96.00" departLane="StoC_0" departPos="5.10" departSpeed="0.00" departDelay="0.00" arrival="143.80" arrivalLane="CtoN_0" arrivalPos="300.00" arrivalSpeed="13.76" duration="47.80" routeLength="594.90" waitingTime="0.00" waitingCount="0" stopTime="0.00" timeLoss="4.94" rerouteNo="0" devices="tripinfo_flow_sn_cars.8" vType="car" speedFactor="1.10" vaporized=""/>
    <tripinfo id="flow_we_cars.8" depart="96.00" departLane="WtoC_0" departPos="5.10" departSpeed="0.00" departDelay="0.00" arrival="143.80" arrivalLane="CtoE_0" arrivalPos="300.00" arrivalSpeed="13.82" duration="47.80" routeLength="594.90" waitingTime="0.00" waitingCount="0" stopTime="0.00" timeLoss="4.90" rerouteNo="0" devices="tripinfo_flow_we_cars.8" vType="car" speedFactor="1.03" vaporized=""/>
    <tripinfo id="flow_ew_cars.8" depart="96.00" departLane="EtoC_0" departPos="5.10" departSpeed="0.00" departDelay="0.00" arrival="147.90" arrivalLane="CtoW_0" arrivalPos="300.00" arrivalSpeed="12.42" duration="51.90" routeLength="594.90" waitingTime="0.00" waitingCount="0" stopTime="0.00" timeLoss="4.34" rerouteNo="0" devices="tripinfo_flow_ew_cars.8" vType="car" speedFactor="0.90" vaporized=""/>
    <tripinfo id="flow_ew_cars.9" depart="108.00" departLane="EtoC_0" departPos="5.10" departSpeed="0.00" departDelay="0.00" arrival="155.60" arrivalLane="CtoW_0" arrivalPos="300.00" arrivalSpeed="13.89" duration="47.60" routeLength="594.90" waitingTime="0.00" waitingCount="0" stopTime="0.00" timeLoss="4.77" rerouteNo="0" devices="tripinfo_flow_ew_cars.9" vType="car" speedFactor="1.04" vaporized=""/>
    <tripinfo id="flow_sn_cars.9" depart="108.00" departLane="StoC_0" departPos="5.10" departSpeed="0.00" departDelay="0.00" arrival="155.70" arrivalLane="CtoN_0" arrivalPos="300.00" arrivalSpeed="13.82" duration="47.70" routeLength="594.90" waitingTime="0.00" waitingCount="0" stopTime="0.00" timeLoss="4.80" rerouteNo="0" devices="tripinfo_flow_sn_cars.9" vType="car" speedFactor="1.09" vaporized=""/>
    <tripinfo id="flow_we_cars.9" depart="108.00" departLane="WtoC_0" departPos="5.10" departSpeed="0.00" departDelay="0.00" arrival="155.90" arrivalLane="CtoE_0" arrivalPos="300.00" arrivalSpeed="13.87" duration="47.90" routeLength="594.90" waitingTime="0.00" waitingCount="0" stopTime="0.00" timeLoss="4.99" rerouteNo="0" devices="tripinfo_flow_we_cars.9" vType="car" speedFactor="1.04" vaporized=""/>
    <tripinfo id="flow_ns_cars.9" depart="108.00" departLane="NtoC_0" departPos="5.10" departSpeed="0.00" departDelay="0.00" arrival="157.30" arrivalLane="CtoS_0" arrivalPos="300.00" arrivalSpeed="13.19" duration="49.30" routeLength="594.90" waitingTime="0.00" waitingCount="0" stopTime="0.00" timeLoss="4.53" rerouteNo="0" devices="tripinfo_flow_ns_cars.9" vType="car" speedFactor="0.96" vaporized=""/>
    <tripinfo id="flow_ns_cars.10" depart="120.00" departLane="NtoC_0" departPos="5.10" departSpeed="0.00" departDelay="0.00" arrival="167.90" arrivalLane="CtoS_0" arrivalPos="300.00" arrivalSpeed="13.88" duration="47.90" routeLength="594.90" waitingTime="0.00" waitingCount="0" stopTime="0.00" timeLoss="4.98" rerouteNo="0" devices="tripinfo_flow_ns_cars.10" vType="car" speedFactor="1.09" vaporized=""/>
    <tripinfo id="flow_sn_cars.10" depart="120.00" departLane="StoC_0" departPos="5.10" departSpeed="0.00" departDelay="0.00" arrival="168.10" arrivalLane="CtoN_0" arrivalPos="300.00" arrivalSpeed="13.82" duration="48.10" routeLength="594.90" waitingTime="0.00" waitingCount="0" stopTime="0.00" timeLoss="5.09" rerouteNo="0" devices="tripinfo_flow_sn_cars.10" vType="car" speedFactor="1.00" vaporized=""/>
    <tripinfo id="flow_ew_cars.10" depart="120.00" departLane="EtoC_0" departPos="5.10" departSpeed="0.00" departDelay="0.00" arrival="172.00" arrivalLane="CtoW_0" arrivalPos="300.00" arrivalSpeed="12.44" duration="52.00" routeLength="594.90" waitingTime="0.00" waitingCount="0" stopTime="0.00" timeLoss="4.40" rerouteNo="0" devices="tripinfo_flow_ew_cars.10" vType="car" speedFactor="0.90" vaporized=""/>
    <tripinfo id="flow_we_cars.10" depart="120.00" departLane="WtoC_0" departPos="5.10" departSpeed="0.00" departDelay="0.00" arrival="172.90" arrivalLane="CtoE_0" arrivalPos="300.00" arrivalSpeed="12.08" duration="52.90" routeLength="594.90" waitingTime="0.00" waitingCount="0" stopTime="0.00" timeLoss="4.06" rerouteNo="0" devices="tripinfo_flow_we_cars.10" vType="car" speedFactor="0.88" vaporized=""/>
    <tripinfo id="flow_we_cars.11" depart="132.00" departLane="WtoC_0" departPos="5.10" departSpeed="0.00" departDelay="0.00" arrival="179.70" arrivalLane="CtoE_0" arrivalPos="300.00" arrivalSpeed="13.78" duration="47.70" routeLength="594.90" waitingTime="0.00" waitingCount="0" stopTime="0.00" timeLoss="4.82" rerouteNo="0" devices="tripinfo_flow_we_cars.11" vType="car" speedFactor="1.00" vaporized=""/>
    <tripinfo id="flow_sn_cars.11" depart="132.00" departLane="StoC_0" departPos="5.10" departSpeed="0.00" departDelay="0.00" arrival="179.90" arrivalLane="CtoN_0" arrivalPos="300.00" arrivalSpeed="13.85" duration="47.90" routeLength="594.90" waitingTime="0.00" waitingCount="0" stopTime="0.00" timeLoss="5.04" rerouteNo="0" devices="tripinfo_flow_sn_cars.11" vType="car" speedFactor="1.02" vaporized=""/>
    <tripinfo id="flow_ns_bus.1" depart="123.80" departLane="NtoC_0" departPos="12.10" departSpeed="0.00" departDelay="3.80" arrival="181.40" arrivalLane="CtoS_0" arrivalPos="300.00" arrivalSpeed="11.76" duration="57.60" routeLength="587.90" waitingTime="0.00" waitingCount="0" stopTime="0.00" timeLoss="7.81" rerouteNo="0" devices="tripinfo_flow_ns_bus.1" vType="bus" speedFactor="0.85" vaporized=""/>
    <tripinfo id="flow_ew_bus.1" depart="123.80" departLane="EtoC_0" departPos="12.10" departSpeed="0.00" departDelay="3.80" arrival="181.60" arrivalLane="CtoW_0" arrivalPos="300.00" arrivalSpeed="11.82" duration="57.80" routeLength="587.90" waitingTime="0.00" waitingCount="0" stopTime="0.00" timeLoss="8.23" rerouteNo="0" devices="tripinfo_flow_ew_bus.1" vType="bus" speedFactor="0.85" vaporized=""/>
    <tripinfo id="flow_ns_cars.11" depart="132.00" departLane="NtoC_0" departPos="5.10" departSpeed="0.00" departDelay="0.00" arrival="183.40" arrivalLane="CtoS_0" arrivalPos="300.00" arrivalSpeed="13.81" duration="51.40" routeLength="594.90" waitingTime="0.00" waitingCount="0" stopTime="0.00" timeLoss="8.54" rerouteNo="0" devices="tripinfo_flow_ns_cars.11" vType="car" speedFactor="1.17" vaporized=""/>
    <tripinfo id="flow_ew_cars.11" depart="132.00" departLane="EtoC_0" departPos="5.10" departSpeed="0.00" departDelay="0.00" arrival="183.60" arrivalLane="CtoW_0" arrivalPos="300.00" arrivalSpeed="13.78" duration="51.60" routeLength="594.90" waitingTime="0.00" waitingCount="0" stopTime="0.00" timeLoss="8.70" rerouteNo="0" devices="tripinfo_flow_ew_cars.11" vType="car" speedFactor="1.10" vaporized=""/>
    <tripinfo id="flow_we_cars.12" depart="144.00" departLane="WtoC_0" departPos="5.10" departSpeed="0.00" departDelay="0.00" arrival="191.90" arrivalLane="CtoE_0" arrivalPos="300.00" arrivalSpeed="13.81" duration="47.90" routeLength="594.90" waitingTime="0.00" waitingCount="0" stopTime="0.00" timeLoss="5.06" rerouteNo="0" devices="tripinfo_flow_we_cars.12" vType="car" speedFactor="1.02" vaporized=""/>
    <tripinfo id="flow_ns_cars.12" depart="144.00" departLane="NtoC_0" departPos="5.10" departSpeed="0.00" departDelay="0.00" arrival="192.00" arrivalLane="CtoS_0" arrivalPos="300.00" arrivalSpeed="13.80" duration="48.00" routeLength="594.90" waitingTime="0.00" waitingCount="0" stopTime="0.00" timeLoss="4.92" rerouteNo="0" devices="tripinfo_flow_ns_cars.12" vType="car" speedFactor="1.00" vaporized=""/>
    <tripinfo id="flow_ew_cars.12" depart="144.00" departLane="EtoC_0" departPos="5.10" departSpeed="0.00" departDelay="0.00" arrival="192.00" arrivalLane="CtoW_0" arrivalPos="300.00" arrivalSpeed="13.85" duration="48.00" routeLength="594.90" waitingTime="0.00" waitingCount="0" stopTime="0.00" timeLoss="5.11" rerouteNo="0" devices="tripinfo_flow_ew_cars.12" vType="car" speedFactor="1.14" vaporized=""/>
    <tripinfo id="flow_sn_cars.12" depart="144.00" departLane="StoC_0" departPos="5.10" departSpeed="0.00" departDelay="0.00" arrival="195.90" arrivalLane="CtoN_0" arrivalPos="300.00" arrivalSpeed="12.43" duration="51.90" routeLength="594.90" waitingTime="0.00" waitingCount="0" stopTime="0.00" timeLoss="4.20" rerouteNo="0" devices="tripinfo_flow_sn_cars.12" vType="car" speedFactor="0.90" vaporized=""/>
    <tripinfo id="ambulance_2" depart="150.00" departLane="EtoC_0" departPos="6.10" departSpeed="0.00" departDelay="0.00" arrival="201.50" arrivalLane="CtoW_0" arrivalPos="300.00" arrivalSpeed="12.24" duration="51.50" routeLength="593.90" waitingTime="0.00" waitingCount="0" stopTime="0.00" timeLoss="3.20" rerouteNo="0" devices="tripinfo_ambulance_2" vType="ambulance" speedFactor="0.89" vaporized=""/>
    <tripinfo id="flow_sn_cars.13" depart="156.00" departLane="StoC_0" departPos="5.10" departSpeed="0.00" departDelay="0.00" arrival="203.70" arrivalLane="CtoN_0" arrivalPos="300.00" arrivalSpeed="13.79" duration="47.70" routeLength="594.90" waitingTime="0.00" waitingCount="0" stopTime="0.00" timeLoss="4.87" rerouteNo="0" devices="tripinfo_flow_sn_cars.13" vType="car" speedFactor="1.08" vaporized=""/>
    <tripinfo id="flow_ew_cars.13" depart="156.00" departLane="EtoC_0" departPos="5.10" departSpeed="0.00" departDelay="0.00" arrival="203.80" arrivalLane="CtoW_0" arrivalPos="300.00" arrivalSpeed="13.86" duration="47.80" routeLength="594.90" waitingTime="0.00" waitingCount="0" stopTime="0.00" timeLoss="4.93" rerouteNo="0" devices="tripinfo_flow_ew_cars.13" vType="car" speedFactor="1.12" vaporized=""/>
    <tripinfo id="flow_we_cars.13" depart="156.00" departLane="WtoC_0" departPos="5.10" departSpeed="0.00" departDelay="0.00" arrival="203.80" arrivalLane="CtoE_0" arrivalPos="300.00" arrivalSpeed="13.77" duration="47.80" routeLength="594.90" waitingTime="0.00" waitingCount="0" stopTime="0.00" timeLoss="4.97" rerouteNo="0" devices="tripinfo_flow_we_cars.13" vType="car" speedFactor="1.02" vaporized=""/>
    <tripinfo id="flow_ns_cars.13" depart="156.00" departLane="NtoC_0" departPos="5.10" departSpeed="0.00" departDelay="0.00" arrival="205.00" arrivalLane="CtoS_0" arrivalPos="300.00" arrivalSpeed="13.34" duration="49.00" routeLength="594.90" waitingTime="0.00" waitingCount="0" stopTime="0.00" timeLoss="4.79" rerouteNo="0" devices="tripinfo_flow_ns_cars.13" vType="car" speedFactor="0.97" vaporized=""/>
    <tripinfo id="flow_ns_cars.14" depart="168.00" departLane="NtoC_0" departPos="5.10" departSpeed="0.00" departDelay="0.00" arrival="216.20" arrivalLane="CtoS_0" arrivalPos="300.00" arrivalSpeed="13.65" duration="48.20" routeLength="594.90" waitingTime="0.00" waitingCount="0" stopTime="0.00" timeLoss="4.77" rerouteNo="0" devices="tripinfo_flow_ns_cars.14" vType="car" speedFactor="0.99" vaporized=""/>
    <tripinfo id="flow_sn_cars.14" depart="168.00" departLane="StoC_0" departPos="5.10" departSpeed="0.00" departDelay="0.00" arrival="218.30" arrivalLane="CtoN_0" arrivalPos="300.00" arrivalSpeed="12.95" duration="50.30" routeLength="594.90" waitingTime="0.00" waitingCount="0" stopTime="0.00" timeLoss="4.57" rerouteNo="0" devices="tripinfo_flow_sn_cars.14" vType="car" speedFactor="0.94" vaporized=""/>
    <tripinfo id="flow_we_cars.14" depart="168.00" departLane="WtoC_0" departPos="5.10" departSpeed="0.00" departDelay="0.00" arrival="219.40" arrivalLane="CtoE_0" arrivalPos="300.00" arrivalSpeed="12.55" duration="51.40" routeLength="594.90" waitingTime="0.00" waitingCount="0" stopTime="0.00" timeLoss="4.14" rerouteNo="0" devices="tripinfo_flow_we_cars.14" vType="car" speedFactor="0.91" vaporized=""/>
    <tripinfo id="flow_ew_cars.14" depart="168.00" departLane="EtoC_0" departPos="5.10" departSpeed="0.00" departDelay="0.00" arrival="220.70" arrivalLane="CtoW_0" arrivalPos="300.00" arrivalSpeed="12.22" duration="52.70" routeLength="594.90" waitingTime="0.00" waitingCount="0" stopTime="0.00" timeLoss="4.07" rerouteNo="0" devices="tripinfo_flow_ew_cars.14" vType="car" speedFactor="0.88" vaporized=""/>
    <tripinfo id="flow_ew_cars.15" depart="180.00" departLane="EtoC_0" departPos="5.10" departSpeed="0.00" departDelay="0.00" arrival="227.70" arrivalLane="CtoW_0" arrivalPos="300.00" arrivalSpeed="13.87" duration="47.70" routeLength="594.90" waitingTime="0.00" waitingCount="0" stopTime="0.00" timeLoss="4.86" rerouteNo="0" devices="tripinfo_flow_ew_cars.15" vType="car" speedFactor="1.02" vaporized=""/>
    <tripinfo id="flow_we_cars.15" depart="180.00" departLane="WtoC_0" departPos="5.10" departSpeed="0.00" departDelay="0.00" arrival="227.80" arrivalLane="CtoE_0" arrivalPos="300.00" arrivalSpeed="13.82" duration="47.80" routeLength="594.90" waitingTime="0.00" waitingCount="0" stopTime="0.00" timeLoss="4.93" rerouteNo="0" devices="tripinfo_flow_we_cars.15" vType="car" speedFactor="1.02" vaporized=""/>
    <tripinfo id="flow_sn_cars.15" depart="180.00" departLane="StoC_0" departPos="5.10" departSpeed="0.00" departDelay="0.00" arrival="227.90" arrivalLane="CtoN_0" arrivalPos="300.00" arrivalSpeed="13.85" duration="47.90" routeLength="594.90" waitingTime="0.00" waitingCount="0" stopTime="0.00" timeLoss="5.05" rerouteNo="0" devices="tripinfo_flow_sn_cars.15" vType="car" speedFactor="1.04" vaporized=""/>
    <tripinfo id="flow_ns_cars.15" depart="180.00" departLane="NtoC_0" departPos="5.10" departSpeed="0.00" departDelay="0.00" arrival="231.20" arrivalLane="CtoS_0" arrivalPos="300.00" arrivalSpeed="12.65" duration="51.20" routeLength="594.90" waitingTime="0.00" waitingCount="0" stopTime="0.00" timeLoss="4.31" rerouteNo="0" devices="tripinfo_flow_ns_cars.15" vType="car" speedFactor="0.91" vaporized=""/>
    <tripinfo id="flow_ew_cars.16" depart="192.00" departLane="EtoC_0" departPos="5.10" departSpeed="0.00" departDelay="0.00" arrival="239.80" arrivalLane="CtoW_0" arrivalPos="300.00" arrivalSpeed="13.78" duration="47.80" routeLength="594.90" waitingTime="0.00" waitingCount="0" stopTime="0.00" timeLoss="4.96" rerouteNo="0" devices="tripinfo_flow_ew_cars.16" vType="car" speedFactor="1.06" vaporized=""/>
    <tripinfo id="flow_ns_cars.16" depart="192.00" departLane="NtoC_0" departPos="5.10" departSpeed="0.00" departDelay="0.00" arrival="240.70" arrivalLane="CtoS_0" arrivalPos="300.00" arrivalSpeed="13.43" duration="48.70" routeLength="594.90" waitingTime="0.00" waitingCount="0" stopTime="0.00" timeLoss="4.65" rerouteNo="0" devices="tripinfo_flow_ns_cars.16" vType="car" speedFactor="0.97" vaporized=""/>